# vtk DataFile Version 2.0
Temperaturverlauf in einer Kühlrippe mit konstanter Wärmequelle von 90 Grad Celsius und Matrix-Dimension 150x150
ASCII
DATASET STRUCTURED_POINTS
DIMENSIONS 150 150 1
ORIGIN 0 0 0
SPACING 0.00666667 0.00666667 1

POINT_DATA 22500
SCALARS Skalare double
LOOKUP_TABLE default
90 0 0 0 0 0 0 0 0 0 0 0 0 0 0 0 0 0 0 0 0 0 0 0 0 0 0 0 0 0 0 0 0 0 0 0 0 0 0 0 0 0 0 0 0 0 0 0 0 0 0 0 0 0 0 0 0 0 0 0 0 0 0 0 0 0 0 0 0 0 0 0 0 0 0 0 0 0 0 0 0 0 0 0 0 0 0 0 0 0 0 0 0 0 0 0 0 0 0 0 0 0 0 0 0 0 0 0 0 0 0 0 0 0 0 0 0 0 0 0 0 0 0 0 0 0 0 0 0 0 0 0 0 0 0 0 0 0 0 0 0 0 0 0 0 0 0 0 0 0 
90 44.9958 27.2029 18.8324 14.2477 11.4202 9.51728 8.15255 7.1266 6.32722 5.68667 5.16172 4.72351 4.35206 4.03306 3.75603 3.51312 3.2983 3.1069 2.93523 2.78033 2.6398 2.5117 2.39441 2.28657 2.18706 2.09492 2.00934 1.92962 1.85515 1.78541 1.71995 1.65838 1.60033 1.54551 1.49364 1.44448 1.39781 1.35344 1.31119 1.27091 1.23246 1.19571 1.16055 1.12686 1.09456 1.06356 1.03377 1.00512 0.977548 0.95099 0.925389 0.900691 0.876847 0.853813 0.831546 0.810008 0.789162 0.768974 0.749413 0.730449 0.712054 0.694204 0.676873 0.660039 0.64368 0.627777 0.612309 0.597261 0.582613 0.568351 0.554459 0.540924 0.52773 0.514866 0.50232 0.490078 0.478132 0.466469 0.45508 0.443955 0.433085 0.422461 0.412075 0.401918 0.391984 0.382264 0.372751 0.363439 0.354321 0.345391 0.336642 0.328069 0.319666 0.311427 0.303348 0.295423 0.287647 0.280016 0.272524 0.265167 0.257942 0.250843 0.243867 0.237009 0.230266 0.223634 0.217108 0.210687 0.204366 0.198141 0.192009 0.185968 0.180013 0.174142 0.168352 0.162639 0.157001 0.151435 0.145937 0.140506 0.135138 0.129831 0.124582 0.119388 0.114246 0.109155 0.104112 0.0991137 0.094158 0.0892425 0.0843646 0.079522 0.0747121 0.0699326 0.0651809 0.0604546 0.0557512 0.0510682 0.046403 0.041753 0.0371153 0.0324872 0.0278656 0.0232469 0.0186272 0.0140017 0.00936375 0.00470307 0 
90 62.7804 44.9832 33.8789 26.7381 21.9157 18.4963 15.9662 14.0266 12.4955 11.2576 10.2366 9.38019 8.65157 8.02405 7.47787 6.99805 6.5731 6.19399 5.8536 5.54619 5.2671 5.01251 4.77926 4.56472 4.36666 4.1832 4.01274 3.85389 3.70547 3.56646 3.43594 3.31313 3.19735 3.08798 2.98448 2.88638 2.79323 2.70466 2.62032 2.53991 2.46314 2.38975 2.31953 2.25225 2.18774 2.12581 2.0663 2.00907 1.95399 1.90094 1.84979 1.80044 1.7528 1.70677 1.66227 1.61923 1.57758 1.53723 1.49814 1.46024 1.42348 1.3878 1.35316 1.31951 1.28682 1.25503 1.22411 1.19403 1.16475 1.13624 1.10847 1.08142 1.05504 1.02933 1.00424 0.979774 0.955891 0.932575 0.909806 0.887566 0.865834 0.844595 0.823831 0.803526 0.783664 0.764231 0.745213 0.726596 0.708366 0.690511 0.67302 0.655879 0.639079 0.622607 0.606453 0.590608 0.575061 0.559803 0.544824 0.530115 0.515668 0.501475 0.487526 0.473814 0.460332 0.447071 0.434024 0.421185 0.408546 0.396099 0.38384 0.37176 0.359854 0.348115 0.336537 0.325115 0.313841 0.302712 0.29172 0.28086 0.270127 0.259515 0.249019 0.238634 0.228354 0.218174 0.20809 0.198096 0.188187 0.178358 0.168605 0.158922 0.149305 0.139748 0.130247 0.120797 0.111393 0.10203 0.0927019 0.0834046 0.0741323 0.0648792 0.0556392 0.0464058 0.0371713 0.0279269 0.0186614 0.00935963 0 
90 71.1424 56.0704 44.9619 36.9101 31.0082 26.5859 23.1894 20.5178 18.3706 16.6117 15.1468 13.909 12.8499 11.9336 11.1332 10.428 9.80195 9.24228 8.7389 8.28363 7.86979 7.49188 7.14533 6.82631 6.53158 6.2584 6.00443 5.76765 5.54631 5.33891 5.14412 4.96078 4.78787 4.62449 4.46985 4.32322 4.18399 4.05156 3.92545 3.80518 3.69033 3.58055 3.47547 3.3748 3.27824 3.18554 3.09647 3.0108 2.92833 2.84888 2.77229 2.69839 2.62704 2.55811 2.49146 2.42699 2.36459 2.30415 2.24558 2.1888 2.13372 2.08027 2.02837 1.97795 1.92895 1.88132 1.83499 1.78991 1.74603 1.70331 1.66169 1.62114 1.58161 1.54306 1.50547 1.46879 1.43299 1.39805 1.36392 1.33058 1.298 1.26617 1.23504 1.2046 1.17483 1.1457 1.11718 1.08928 1.06195 1.03518 1.00896 0.983261 0.958073 0.933379 0.909162 0.885406 0.862097 0.839221 0.816764 0.794712 0.773052 0.751772 0.730859 0.710301 0.690087 0.670205 0.650644 0.631394 0.612443 0.593783 0.575401 0.55729 0.539438 0.521838 0.504479 0.487352 0.47045 0.453762 0.437281 0.420998 0.404905 0.388994 0.373257 0.357685 0.342272 0.327009 0.311889 0.296904 0.282047 0.26731 0.252686 0.238168 0.223748 0.20942 0.195174 0.181005 0.166905 0.152867 0.138882 0.124942 0.111041 0.0971691 0.0833175 0.0694769 0.0556365 0.0417843 0.0279063 0.0139852 0 
90 75.7185 63.1942 52.9882 44.9321 38.6209 33.6496 29.6875 26.4846 23.8573 21.6716 19.8297 18.259 16.9053 15.7273 14.6933 13.7788 12.9643 12.2342 11.576 10.9796 10.4365 9.93981 9.48378 9.0635 8.67485 8.3143 7.97884 7.66587 7.37313 7.09867 6.84076 6.5979 6.36877 6.15218 5.9471 5.7526 5.56784 5.39207 5.22463 5.06492 4.91239 4.76654 4.62692 4.49313 4.36479 4.24157 4.12314 4.00922 3.89955 3.79389 3.69201 3.5937 3.49878 3.40706 3.31838 3.23259 3.14954 3.06911 2.99116 2.91557 2.84226 2.7711 2.702 2.63488 2.56964 2.50622 2.44453 2.3845 2.32607 2.26917 2.21375 2.15974 2.1071 2.05576 2.00569 1.95684 1.90916 1.86261 1.81715 1.77274 1.72935 1.68693 1.64547 1.60492 1.56526 1.52645 1.48847 1.45129 1.41488 1.37922 1.34428 1.31004 1.27649 1.24359 1.21132 1.17967 1.14861 1.11813 1.08821 1.05883 1.02997 1.00161 0.973748 0.946356 0.919422 0.89293 0.866865 0.841214 0.815963 0.791097 0.766604 0.74247 0.718683 0.69523 0.672098 0.649277 0.626754 0.604517 0.582555 0.560858 0.539413 0.518211 0.49724 0.47649 0.455951 0.435612 0.415464 0.395495 0.375698 0.35606 0.336573 0.317227 0.298012 0.278918 0.259936 0.241056 0.222267 0.203561 0.184926 0.166354 0.147832 0.12935 0.110896 0.0924588 0.0740245 0.0555788 0.0371054 0.018586 0 
90 78.5375 67.9995 58.8645 51.209 44.8935 39.704 35.4264 31.8757 28.9021 26.3878 24.2414 22.392 20.7848 19.3767 18.1339 17.0296 16.0421 15.1541 14.3513 13.622 12.9566 12.347 11.7864 11.269 10.7899 10.345 9.93068 9.54377 9.18159 8.84178 8.52226 8.22121 7.93703 7.66828 7.4137 7.17214 6.9426 6.72416 6.51601 6.3174 6.12767 5.94621 5.77246 5.60593 5.44615 5.29271 5.14521 5.00331 4.86669 4.73503 4.60807 4.48555 4.36723 4.25289 4.14233 4.03536 3.9318 3.83149 3.73427 3.64 3.54854 3.45977 3.37357 3.28982 3.20843 3.12929 3.05231 2.97741 2.90449 2.83348 2.7643 2.6969 2.63119 2.56711 2.50461 2.44363 2.3841 2.32599 2.26924 2.21379 2.15962 2.10667 2.0549 2.00427 1.95475 1.90629 1.85886 1.81243 1.76697 1.72244 1.67881 1.63606 1.59415 1.55307 1.51277 1.47325 1.43446 1.3964 1.35903 1.32233 1.28629 1.25088 1.21608 1.18186 1.14822 1.11514 1.08258 1.05055 1.01901 0.987951 0.957359 0.927215 0.897505 0.868211 0.83932 0.810815 0.782682 0.754908 0.727476 0.700375 0.67359 0.647107 0.620913 0.594995 0.56934 0.543936 0.518769 0.493828 0.469099 0.44457 0.42023 0.396066 0.372065 0.348216 0.324507 0.300925 0.277458 0.254095 0.230821 0.207625 0.184493 0.161413 0.13837 0.115349 0.0923351 0.069312 0.0462615 0.0231644 0 
90 80.4318 71.4018 63.261 56.146 50.0402 44.8463 40.4382 36.6897 33.4876 30.736 28.3558 26.2828 24.4651 22.8607 21.436 20.1634 19.0204 17.9887 17.0529 16.2006 15.4209 14.7052 14.0457 13.436 12.8708 12.3451 11.855 11.3968 10.9676 10.5645 10.1852 9.82758 9.48977 9.17013 8.86717 8.57958 8.30617 8.04588 7.79775 7.56092 7.3346 7.11807 6.9107 6.71188 6.52108 6.3378 6.1616 5.99204 5.82876 5.67138 5.5196 5.3731 5.2316 5.09485 4.9626 4.83463 4.71072 4.59069 4.47434 4.36152 4.25205 4.14579 4.04259 3.94233 3.84488 3.75012 3.65794 3.56823 3.4809 3.39586 3.31301 3.23226 3.15355 3.0768 3.00192 2.92886 2.85755 2.78792 2.71992 2.65349 2.58858 2.52513 2.4631 2.40243 2.34308 2.28501 2.22817 2.17253 2.11804 2.06467 2.01238 1.96114 1.91091 1.86167 1.81337 1.76599 1.7195 1.67388 1.62908 1.5851 1.54189 1.49944 1.45772 1.41671 1.37639 1.33672 1.2977 1.25929 1.22148 1.18425 1.14758 1.11144 1.07582 1.0407 1.00606 0.971892 0.938164 0.904866 0.871979 0.839488 0.807375 0.775625 0.744221 0.713148 0.682391 0.651933 0.621761 0.591858 0.562211 0.532804 0.503622 0.474652 0.445878 0.417286 0.388862 0.360591 0.332458 0.304449 0.276549 0.248743 0.221015 0.19335 0.165732 0.138143 0.110566 0.0829837 0.0553755 0.0277213 0 
90 81.788 73.9147 66.6318 60.0737 54.2748 49.2028 44.7904 40.9571 37.6225 34.7128 32.1631 29.9182 27.9318 26.1651 24.5859 23.1674 21.8874 20.7271 19.6712 18.7063 17.8213 17.0069 16.255 15.5586 14.9119 14.3096 13.7472 13.221 12.7273 12.2634 11.8264 11.414 11.0243 10.6552 10.3052 9.97274 9.65653 9.35534 9.06811 8.79383 8.53163 8.2807 8.04028 7.80972 7.5884 7.37575 7.17124 6.97442 6.78482 6.60206 6.42576 6.25556 6.09114 5.93222 5.7785 5.62974 5.48568 5.34611 5.21081 5.07959 4.95226 4.82865 4.70859 4.59194 4.47855 4.36827 4.261 4.15659 4.05495 3.95595 3.85951 3.76551 3.67388 3.58451 3.49733 3.41226 3.32922 3.24814 3.16895 3.09159 3.01599 2.94209 2.86984 2.79917 2.73004 2.6624 2.59619 2.53138 2.4679 2.40573 2.34482 2.28512 2.2266 2.16923 2.11296 2.05776 2.0036 1.95043 1.89824 1.84699 1.79665 1.74719 1.69857 1.65079 1.6038 1.55758 1.5121 1.46735 1.42329 1.3799 1.33717 1.29505 1.25355 1.21262 1.17226 1.13243 1.09313 1.05432 1.016 0.978133 0.940709 0.903707 0.867109 0.830897 0.795052 0.759557 0.724394 0.689545 0.654994 0.620723 0.586714 0.552952 0.51942 0.486099 0.452975 0.420029 0.387245 0.354605 0.322094 0.289693 0.257385 0.225152 0.192975 0.160836 0.128715 0.0965921 0.0644464 0.0322564 0 
90 82.8053 75.8371 69.2775 63.2422 57.7824 52.8997 48.5634 44.7258 41.3325 38.3293 35.6654 33.2952 31.1788 29.2819 27.575 26.0329 24.6344 23.3613 22.1982 21.1319 20.1511 19.2461 18.4087 17.6316 16.9085 16.234 15.6033 15.0123 14.4573 13.9351 13.4428 12.9778 12.538 12.1211 11.7255 11.3496 10.9918 10.6508 10.3254 10.0146 9.71732 9.43271 9.15993 8.89825 8.64696 8.40545 8.17312 7.94946 7.73397 7.5262 7.32572 7.13214 6.94511 6.76429 6.58937 6.42005 6.25607 6.09717 5.94312 5.79368 5.64867 5.50787 5.3711 5.2382 5.109 4.98335 4.8611 4.74211 4.62625 4.51341 4.40347 4.29631 4.19184 4.08995 3.99054 3.89354 3.79884 3.70638 3.61607 3.52783 3.44161 3.35732 3.2749 3.19429 3.11543 3.03827 2.96274 2.88879 2.81638 2.74544 2.67594 2.60783 2.54106 2.4756 2.41139 2.3484 2.2866 2.22593 2.16637 2.10789 2.05044 1.99399 1.93851 1.88398 1.83035 1.7776 1.7257 1.67462 1.62434 1.57482 1.52604 1.47798 1.4306 1.38389 1.33782 1.29237 1.2475 1.20321 1.15947 1.11625 1.07353 1.0313 0.989523 0.948189 0.907275 0.86676 0.826623 0.786846 0.747408 0.708289 0.669472 0.630935 0.59266 0.554628 0.51682 0.479216 0.441798 0.404545 0.36744 0.330462 0.293591 0.256808 0.220092 0.183422 0.146776 0.110134 0.0734728 0.0367691 0 
90 83.5961 77.3509 71.3989 65.835 60.7129 56.05 51.8376 48.05 44.6524 41.6065 38.8738 36.4181 34.2063 32.2086 30.399 28.7547 27.2559 25.8854 24.6283 23.4719 22.4049 21.4178 20.502 19.6503 18.8563 18.1144 17.4196 16.7676 16.1545 15.5769 15.0318 14.5165 14.0285 13.5657 13.1262 12.7082 12.3101 11.9305 11.5681 11.2217 10.8903 10.5728 10.2684 9.97628 9.69566 9.42586 9.16626 8.91625 8.67532 8.44295 8.21868 8.00209 7.79278 7.59037 7.39454 7.20494 7.02129 6.8433 6.67071 6.50327 6.34076 6.18296 6.02966 5.88068 5.73582 5.59493 5.45784 5.3244 5.19446 5.06789 4.94456 4.82435 4.70713 4.59281 4.48127 4.37241 4.26615 4.16238 4.06102 3.96198 3.8652 3.77058 3.67806 3.58757 3.49905 3.41241 3.32761 3.24459 3.16328 3.08363 3.00559 2.92911 2.85413 2.78062 2.70851 2.63778 2.56836 2.50023 2.43334 2.36766 2.30313 2.23973 2.17742 2.11617 2.05593 1.99668 1.93839 1.88101 1.82453 1.76891 1.71411 1.66012 1.60691 1.55443 1.50268 1.45162 1.40122 1.35147 1.30232 1.25377 1.20578 1.15834 1.11141 1.06497 1.01901 0.973494 0.928405 0.883718 0.839413 0.795467 0.751859 0.708567 0.665569 0.622844 0.580372 0.538129 0.496096 0.45425 0.41257 0.371034 0.329621 0.288308 0.247073 0.205894 0.164746 0.123607 0.0824525 0.0412584 0 
90 84.228 78.5715 73.1319 67.9861 63.184 58.7498 54.6869 50.9841 47.6205 44.5703 41.8052 39.2972 37.0195 34.9472 33.0578 31.331 29.749 28.2959 26.9578 25.7223 24.5788 23.5179 22.5311 21.6114 20.7521 19.9477 19.1931 18.4839 17.816 17.1861 16.5909 16.0276 15.4938 14.987 14.5053 14.0468 13.6098 13.1929 12.7947 12.4138 12.0491 11.6997 11.3645 11.0427 10.7334 10.436 10.1497 9.87389 9.60801 9.3515 9.10388 8.86467 8.63345 8.40981 8.19337 7.9838 7.78075 7.58393 7.39305 7.20785 7.02806 6.85346 6.68382 6.51893 6.35859 6.20262 6.05085 5.90309 5.75921 5.61903 5.48244 5.34929 5.21945 5.0928 4.96922 4.84861 4.73086 4.61587 4.50355 4.3938 4.28653 4.18166 4.07911 3.97881 3.88067 3.78463 3.69062 3.59858 3.50843 3.42012 3.3336 3.24879 3.16566 3.08414 3.00418 2.92574 2.84876 2.77321 2.69902 2.62617 2.55461 2.4843 2.41519 2.34725 2.28044 2.21472 2.15006 2.08642 2.02377 1.96207 1.9013 1.84141 1.78237 1.72417 1.66676 1.61012 1.55421 1.49901 1.4445 1.39064 1.3374 1.28477 1.23271 1.1812 1.13021 1.07971 1.02969 0.98012 0.93097 0.882218 0.833841 0.785815 0.738116 0.69072 0.643604 0.596744 0.550117 0.503699 0.457466 0.411395 0.365462 0.319642 0.273911 0.228245 0.182618 0.137006 0.0913831 0.0457229 0 
90 84.7443 79.5753 74.5708 69.7935 65.2872 61.0781 57.176 53.5788 50.2753 47.2488 44.4794 41.9459 39.6271 37.5028 35.5537 33.7625 32.1132 30.5914 29.1844 27.8807 26.6701 25.5436 24.4932 23.5118 22.5929 21.731 20.9211 20.1586 19.4396 18.7605 18.118 17.5093 16.9318 16.3831 15.861 15.3637 14.8895 14.4366 14.0037 13.5895 13.1927 12.8123 12.4472 12.0965 11.7593 11.4349 11.1225 10.8215 10.5312 10.2511 9.98057 9.71918 9.46645 9.22194 8.98526 8.75603 8.5339 8.31854 8.10964 7.90692 7.71009 7.51891 7.33314 7.15254 6.97691 6.80604 6.63974 6.47783 6.32015 6.16652 6.01679 5.87083 5.72848 5.58962 5.45412 5.32186 5.19273 5.06662 4.94342 4.82304 4.70537 4.59033 4.47783 4.36778 4.26011 4.15474 4.05158 3.95058 3.85166 3.75475 3.65979 3.56672 3.47547 3.386 3.29824 3.21214 3.12765 3.04471 2.96329 2.88332 2.80476 2.72757 2.6517 2.57712 2.50377 2.43162 2.36063 2.29076 2.22197 2.15423 2.0875 2.02174 1.95693 1.89302 1.82998 1.76779 1.7064 1.64579 1.58593 1.52679 1.46834 1.41054 1.35338 1.29681 1.24082 1.18537 1.13045 1.07601 1.02204 0.968506 0.915384 0.862647 0.81027 0.758227 0.706491 0.655038 0.603841 0.552874 0.502112 0.45153 0.4011 0.350797 0.300595 0.250468 0.200387 0.150328 0.100262 0.0501614 0 
90 85.1739 80.4144 75.7827 71.3295 67.0933 63.0992 59.3602 55.8797 52.6531 49.6702 46.9176 44.3797 42.0403 39.8829 37.8918 36.052 34.3497 32.7721 31.3077 29.9459 28.6773 27.4933 26.3863 25.3495 24.3766 23.4623 22.6015 21.7898 21.0232 20.2981 19.6113 18.9598 18.341 17.7524 17.192 16.6576 16.1476 15.6602 15.1941 14.7477 14.3199 13.9095 13.5154 13.1366 12.7724 12.4217 12.0839 11.7583 11.4442 11.141 10.8481 10.5649 10.2911 10.0262 9.76961 9.52108 9.28019 9.0466 8.81997 8.59999 8.38638 8.17887 7.97719 7.7811 7.59037 7.40479 7.22415 7.04826 6.87694 6.71001 6.5473 6.38866 6.23394 6.08299 5.93569 5.7919 5.65149 5.51436 5.38039 5.24947 5.1215 4.99637 4.874 4.7543 4.63717 4.52253 4.4103 4.30041 4.19278 4.08733 3.984 3.88273 3.78343 3.68606 3.59056 3.49685 3.40489 3.31463 3.226 3.13896 3.05345 2.96943 2.88684 2.80565 2.72581 2.64727 2.56999 2.49392 2.41904 2.34529 2.27264 2.20105 2.13048 2.0609 1.99227 1.92456 1.85772 1.79174 1.72656 1.66217 1.59852 1.53559 1.47335 1.41176 1.3508 1.29043 1.23062 1.17135 1.11258 1.05429 0.996452 0.939031 0.882002 0.825337 0.769008 0.712986 0.657245 0.601755 0.54649 0.491422 0.436522 0.381763 0.327116 0.272554 0.218047 0.163567 0.109085 0.0545724 0 
90 85.5367 81.1257 76.8158 72.6486 68.6572 64.8649 61.286 57.9267 54.7869 51.8612 49.141 46.6151 44.2713 42.0967 40.0784 38.2039 36.4614 34.8396 33.3282 31.9178 30.5996 29.3658 28.2091 27.1231 26.1018 25.14 24.2328 23.3758 22.5653 21.7974 21.0692 20.3775 19.7198 19.0935 18.4967 17.9271 17.3829 16.8626 16.3645 15.8873 15.4296 14.9902 14.5681 14.1622 13.7717 13.3956 13.0331 12.6835 12.3462 12.0204 11.7057 11.4013 11.1069 10.8219 10.5459 10.2784 10.0191 9.7676 9.52355 9.28662 9.0565 8.8329 8.61555 8.4042 8.1986 7.99851 7.80373 7.61404 7.42925 7.24918 7.07365 6.90248 6.73553 6.57263 6.41366 6.25845 6.1069 5.95886 5.81422 5.67287 5.53468 5.39957 5.26742 5.13814 5.01164 4.88782 4.7666 4.64789 4.53162 4.41771 4.30608 4.19666 4.08938 3.98418 3.88098 3.77973 3.68036 3.58281 3.48704 3.39297 3.30056 3.20976 3.1205 3.03275 2.94646 2.86157 2.77804 2.69582 2.61488 2.53516 2.45663 2.37925 2.30297 2.22775 2.15356 2.08036 2.00811 1.93678 1.86632 1.79671 1.7279 1.65987 1.59258 1.526 1.46009 1.39482 1.33017 1.26609 1.20256 1.13954 1.07701 1.01493 0.953282 0.892023 0.831127 0.770566 0.710308 0.650323 0.590583 0.531057 0.471715 0.412528 0.353465 0.294496 0.235591 0.176719 0.11785 0.0589543 0 
90 85.847 81.7359 77.706 73.7919 70.0219 66.4172 62.992 59.7542 56.7064 53.8467 51.1698 48.6683 46.3331 44.1541 42.1211 40.2239 38.4522 36.7965 35.2478 33.7974 32.4376 31.1611 29.9612 28.8318 27.7674 26.7629 25.8137 24.9154 24.0644 23.2571 22.4903 21.7611 21.0669 20.4053 19.774 19.171 18.5944 18.0426 17.514 17.0072 16.5208 16.0536 15.6045 15.1724 14.7565 14.3557 13.9693 13.5965 13.2365 12.8888 12.5527 12.2277 11.9131 11.6085 11.3134 11.0275 10.7501 10.4811 10.2199 9.96634 9.72 9.48059 9.24784 9.02147 8.80122 8.58684 8.37812 8.17483 7.97676 7.78373 7.59553 7.412 7.23297 7.05827 6.88776 6.72128 6.55869 6.39987 6.24468 6.093 5.94472 5.79971 5.65788 5.51913 5.38334 5.25042 5.12029 4.99285 4.86802 4.74572 4.62586 4.50836 4.39317 4.28019 4.16937 4.06063 3.95391 3.84914 3.74627 3.64524 3.54598 3.44844 3.35257 3.25831 3.16561 3.07441 2.98468 2.89636 2.8094 2.72376 2.63939 2.55625 2.4743 2.39348 2.31377 2.23513 2.1575 2.08085 2.00515 1.93035 1.85642 1.78332 1.71102 1.63947 1.56865 1.49852 1.42905 1.3602 1.29193 1.22422 1.15703 1.09033 1.02408 0.958256 0.892825 0.827753 0.763008 0.698558 0.634373 0.570419 0.506665 0.443079 0.37963 0.316285 0.253012 0.189779 0.126554 0.0633055 0 
90 86.1153 82.2647 78.4803 74.7911 71.2213 67.7898 64.5104 61.3917 58.4378 55.6492 53.0233 50.5552 48.2384 46.0654 44.0281 42.1181 40.3269 38.6465 37.0688 35.5864 34.1922 32.8797 31.6427 30.4756 29.3731 28.3305 27.3434 26.4077 25.5198 24.6761 23.8738 23.1097 22.3815 21.6866 21.0229 20.3883 19.7811 19.1994 18.6417 18.1066 17.5927 17.0988 16.6238 16.1665 15.726 15.3013 14.8917 14.4964 14.1146 13.7455 13.3887 13.0435 12.7093 12.3856 12.0719 11.7678 11.4728 11.1865 10.9086 10.6387 10.3765 10.1215 9.87366 9.63252 9.39787 9.16944 8.94699 8.7303 8.51916 8.31334 8.11267 7.91694 7.72599 7.53964 7.35773 7.18011 7.00663 6.83715 6.67153 6.50965 6.35138 6.19659 6.04519 5.89705 5.75207 5.61016 5.4712 5.33512 5.20181 5.07119 4.94318 4.81769 4.69464 4.57396 4.45558 4.33942 4.22541 4.11349 4.00359 3.89564 3.78959 3.68538 3.58294 3.48222 3.38316 3.28572 3.18983 3.09544 3.00252 2.91099 2.82083 2.73198 2.64439 2.55803 2.47284 2.38878 2.30581 2.22389 2.14298 2.06303 1.98402 1.90589 1.82861 1.75214 1.67644 1.60148 1.52722 1.45363 1.38066 1.30828 1.23647 1.16517 1.09436 1.02401 0.954074 0.884523 0.815323 0.746441 0.677841 0.609492 0.541357 0.473405 0.405602 0.337912 0.270304 0.202742 0.135194 0.0676244 0 
90 86.3495 82.7271 79.1595 75.6709 72.2822 69.0103 65.868 62.8642 60.0039 57.289 54.7189 52.2906 49.9998 47.841 45.8077 43.8933 42.0909 40.3935 38.7944 37.287 35.865 34.5226 33.2542 32.0545 30.9188 29.8426 28.8217 27.8522 26.9307 26.0539 25.2187 24.4225 23.6626 22.9366 22.2426 21.5783 20.942 20.332 19.7468 19.1847 18.6446 18.1251 17.6252 17.1436 16.6795 16.2319 15.7999 15.3827 14.9797 14.59 14.213 13.8481 13.4948 13.1525 12.8207 12.4989 12.1866 11.8836 11.5893 11.3034 11.0255 10.7554 10.4926 10.237 9.9882 9.74595 9.51002 9.28015 9.05613 8.83773 8.62476 8.41702 8.21432 8.01648 7.82333 7.63472 7.45049 7.27048 7.09457 6.9226 6.75446 6.59001 6.42914 6.27172 6.11766 5.96684 5.81916 5.67451 5.53281 5.39397 5.25788 5.12447 4.99366 4.86535 4.73948 4.61597 4.49474 4.37573 4.25886 4.14406 4.03128 3.92045 3.8115 3.70437 3.59902 3.49537 3.39338 3.29298 3.19414 3.09678 3.00087 2.90635 2.81318 2.7213 2.63068 2.54125 2.45299 2.36584 2.27976 2.1947 2.11064 2.02751 1.94529 1.86393 1.7834 1.70365 1.62464 1.54634 1.46871 1.3917 1.31529 1.23944 1.16411 1.08925 1.01485 0.940854 0.867233 0.793951 0.720972 0.64826 0.575779 0.503494 0.43137 0.359371 0.28746 0.215604 0.143765 0.0719093 0 
90 86.5557 83.1347 79.7595 76.4506 73.2261 70.101 67.0872 64.1931 61.4244 58.784 56.2725 53.8885 51.6293 49.4908 47.4683 45.5565 43.7497 42.0422 40.4282 38.9021 37.4583 36.0915 34.7968 33.5694 32.405 31.2992 30.2483 29.2487 28.2969 27.3899 26.5247 25.6988 24.9096 24.1548 23.4323 22.7402 22.0766 21.4399 20.8285 20.2408 19.6757 19.1318 18.608 18.1032 17.6164 17.1467 16.6931 16.2549 15.8313 15.4216 15.0251 14.6412 14.2693 13.9088 13.5593 13.2203 12.8912 12.5717 12.2614 11.9599 11.6668 11.3817 11.1044 10.8346 10.5719 10.3161 10.0669 9.82406 9.58738 9.35661 9.13154 8.91196 8.69769 8.48853 8.28431 8.08487 7.89003 7.69964 7.51356 7.33164 7.15375 6.97976 6.80953 6.64296 6.47992 6.32029 6.16398 6.01088 5.86088 5.71389 5.56983 5.42858 5.29008 5.15422 5.02094 4.89015 4.76177 4.63574 4.51196 4.39038 4.27093 4.15354 4.03814 3.92467 3.81308 3.70328 3.59524 3.48889 3.38417 3.28104 3.17943 3.0793 2.98058 2.88324 2.78722 2.69248 2.59896 2.50662 2.41542 2.3253 2.23622 2.14815 2.06103 1.97482 1.88949 1.80498 1.72126 1.6383 1.55603 1.47444 1.39348 1.3131 1.23328 1.15396 1.07513 0.996722 0.918716 0.84107 0.763746 0.686708 0.609916 0.533334 0.456925 0.380651 0.304474 0.228358 0.152266 0.0761585 0 
90 86.7384 83.4964 80.293 77.1459 74.0706 71.0805 68.1864 65.3965 62.7165 60.15 57.6984 55.3616 53.1379 51.0246 49.0182 47.1146 45.3092 43.5974 41.9742 40.4347 38.9743 37.5882 36.272 35.0214 33.8323 32.7009 31.6237 30.5972 29.6182 28.6839 27.7914 26.9383 26.122 25.3405 24.5916 23.8735 23.1843 22.5224 21.8862 21.2744 20.6855 20.1184 19.5718 19.0448 18.5362 18.0452 17.5709 17.1124 16.669 16.2399 15.8245 15.4221 15.0322 14.6541 14.2874 13.9316 13.5862 13.2507 12.9247 12.6079 12.2999 12.0002 11.7087 11.4249 11.1486 10.8795 10.6173 10.3618 10.1126 9.8697 9.63273 9.40152 9.17586 8.95556 8.74043 8.53031 8.32502 8.1244 7.9283 7.73657 7.54906 7.36565 7.1862 7.01057 6.83866 6.67034 6.50551 6.34404 6.18585 6.03082 5.87885 5.72986 5.58375 5.44043 5.29982 5.16183 5.02637 4.89339 4.76278 4.63449 4.50844 4.38455 4.26277 4.14302 4.02524 3.90936 3.79532 3.68307 3.57254 3.46368 3.35643 3.25073 3.14652 3.04377 2.94241 2.84239 2.74367 2.64619 2.5499 2.45476 2.36072 2.26774 2.17576 2.08475 1.99465 1.90544 1.81705 1.72946 1.64261 1.55646 1.47098 1.38612 1.30185 1.21811 1.13488 1.0521 0.96975 0.887778 0.806147 0.724819 0.643754 0.562912 0.482255 0.401744 0.321339 0.241001 0.160691 0.0803704 0 
90 86.9013 83.8193 80.7702 77.7692 74.8298 71.9639 69.1814 66.4899 63.8952 61.401 59.0096 56.7214 54.5359 52.4513 50.4652 48.5743 46.7751 45.0638 43.4362 41.8883 40.4159 39.015 37.6815 36.4117 35.2018 34.0485 32.9482 31.898 30.8948 29.9359 29.0187 28.1407 27.2997 26.4935 25.7201 24.9777 24.2646 23.579 22.9196 22.2848 21.6735 21.0843 20.5161 19.9678 19.4384 18.927 18.4327 17.9547 17.4922 17.0444 16.6107 16.1905 15.7831 15.388 15.0046 14.6325 14.2711 13.92 13.5788 13.247 12.9244 12.6105 12.3051 12.0077 11.718 11.4359 11.1609 10.8929 10.6316 10.3767 10.1281 9.88543 9.64858 9.41732 9.19146 8.97083 8.75526 8.54456 8.33858 8.13718 7.9402 7.74749 7.55893 7.37439 7.19373 7.01683 6.84358 6.67386 6.50756 6.34458 6.18482 6.02817 5.87454 5.72385 5.57598 5.43087 5.28843 5.14856 5.0112 4.87627 4.74368 4.61338 4.48527 4.3593 4.2354 4.1135 3.99353 3.87544 3.75916 3.64462 3.53178 3.42057 3.31093 3.20281 3.09616 2.99092 2.88704 2.78446 2.68315 2.58303 2.48408 2.38623 2.28944 2.19367 2.09886 2.00497 1.91196 1.81978 1.72838 1.63773 1.54777 1.45847 1.36979 1.28167 1.19408 1.10697 1.02031 0.934055 0.848157 0.762579 0.677279 0.592217 0.507352 0.422642 0.338047 0.253526 0.169038 0.0845433 0 
90 87.0475 84.1093 81.1993 78.3307 75.5154 72.764 70.0852 67.4864 64.9731 62.5492 60.2173 57.9786 55.833 53.7796 51.8168 49.9422 48.1531 46.4463 44.8185 43.2663 41.786 40.3742 39.0273 37.7419 36.5148 35.3427 34.2226 33.1517 32.1271 31.1462 30.2067 29.3062 28.4425 27.6136 26.8176 26.0526 25.3171 24.6095 23.9282 23.2718 22.6392 22.0291 21.4403 20.8717 20.3225 19.7916 19.2782 18.7814 18.3005 17.8348 17.3835 16.946 16.5217 16.11 15.7105 15.3225 14.9456 14.5793 14.2233 13.877 13.5402 13.2124 12.8933 12.5826 12.2799 11.985 11.6976 11.4173 11.1441 10.8775 10.6173 10.3635 10.1156 9.87358 9.63718 9.40622 9.18052 8.9599 8.74421 8.53328 8.32696 8.12511 7.92757 7.73423 7.54494 7.35957 7.17802 7.00016 6.82587 6.65504 6.48758 6.32337 6.16232 6.00433 5.84931 5.69716 5.5478 5.40115 5.25711 5.11561 4.97656 4.8399 4.70555 4.57343 4.44348 4.31562 4.18978 4.06591 3.94393 3.82379 3.70541 3.58874 3.47373 3.3603 3.24841 3.138 3.02902 2.9214 2.8151 2.71006 2.60624 2.50357 2.40202 2.30153 2.20205 2.10354 2.00595 1.90923 1.81333 1.71821 1.62382 1.53012 1.43707 1.34461 1.25271 1.16131 1.07039 0.979882 0.889758 0.799971 0.710479 0.621237 0.532204 0.443336 0.354592 0.265929 0.177304 0.0886754 0 
90 87.1793 84.3709 81.5869 78.8389 76.1371 73.4912 70.909 68.3973 65.9615 63.6054 61.3319 59.1424 57.0377 55.0172 53.0801 51.2246 49.4486 47.7498 46.1253 44.5722 43.0876 41.6684 40.3115 39.0139 37.7727 36.5849 35.4479 34.3589 33.3155 32.3151 31.3556 30.4347 29.5503 28.7007 27.8838 27.098 26.3418 25.6134 24.9117 24.235 23.5824 22.9524 22.3441 21.7563 21.1882 20.6387 20.107 19.5922 19.0937 18.6106 18.1423 17.6882 17.2476 16.8199 16.4046 16.0013 15.6093 15.2283 14.8579 14.4975 14.1468 13.8054 13.4731 13.1493 12.8339 12.5266 12.2269 11.9347 11.6497 11.3716 11.1003 10.8354 10.5767 10.3241 10.0774 9.83626 9.6006 9.37023 9.14498 8.92468 8.70917 8.4983 8.29194 8.08992 7.89213 7.69843 7.50869 7.32279 7.14062 6.96206 6.787 6.61533 6.44695 6.28176 6.11967 5.96058 5.80439 5.65102 5.50039 5.3524 5.20697 5.06404 4.92351 4.78531 4.64937 4.51562 4.38399 4.2544 4.12679 4.00109 3.87724 3.75518 3.63485 3.51617 3.3991 3.28357 3.16954 3.05693 2.9457 2.83579 2.72714 2.61971 2.51345 2.40829 2.30419 2.20111 2.09898 1.99776 1.89741 1.79787 1.6991 1.60104 1.50366 1.40691 1.31073 1.2151 1.11995 1.02524 0.930934 0.836981 0.743338 0.649959 0.556801 0.463819 0.370968 0.278205 0.185485 0.0927651 0 
90 87.2986 84.608 81.9386 79.3005 76.703 74.1545 71.6622 69.2323 66.87 64.579 62.3622 60.2216 58.1579 56.1714 54.2616 52.4273 50.667 48.9788 47.3604 45.8096 44.3237 42.9001 41.5362 40.2294 38.9769 37.7763 36.625 35.5205 34.4607 33.4431 32.4657 31.5265 30.6235 29.7549 28.9189 28.1139 27.3384 26.5908 25.8699 25.1742 24.5027 23.8541 23.2272 22.6212 22.0351 21.4678 20.9186 20.3867 19.8712 19.3715 18.8869 18.4167 17.9604 17.5173 17.0868 16.6686 16.2621 15.8668 15.4823 15.1081 14.744 14.3894 14.0441 13.7077 13.3799 13.0603 12.7487 12.4448 12.1483 11.859 11.5766 11.301 11.0317 10.7688 10.5118 10.2607 10.0153 9.77536 9.54071 9.3112 9.08665 8.86692 8.65185 8.44131 8.23514 8.03322 7.83542 7.64161 7.45167 7.26548 7.08293 6.9039 6.7283 6.55601 6.38695 6.221 6.05807 5.89808 5.74093 5.58653 5.43481 5.28567 5.13904 4.99484 4.85299 4.71342 4.57605 4.44081 4.30764 4.17646 4.0472 3.91981 3.79421 3.67035 3.54815 3.42757 3.30853 3.19099 3.07489 2.96016 2.84675 2.73461 2.62368 2.5139 2.40524 2.29762 2.19101 2.08535 1.98058 1.87667 1.77356 1.6712 1.56954 1.46854 1.36814 1.2683 1.16897 1.07011 0.971666 0.873592 0.775843 0.678372 0.581133 0.48408 0.387167 0.290349 0.193578 0.0968108 0 
90 87.4072 84.8237 82.2589 79.7216 77.2199 74.7615 72.3528 69.9998 67.707 65.4782 63.3164 61.2236 59.2009 57.2489 55.3675 53.5559 51.8132 50.1378 48.528 46.9819 45.4973 44.0721 42.7039 41.3904 40.1293 38.9183 37.7551 36.6375 35.5634 34.5308 33.5376 32.582 31.6622 30.7763 29.9228 29.1002 28.3069 27.5415 26.8027 26.0893 25.4 24.7338 24.0895 23.4662 22.863 22.2788 21.713 21.1646 20.633 20.1173 19.617 19.1314 18.6599 18.2018 17.7568 17.3242 16.9035 16.4943 16.0962 15.7087 15.3315 14.9641 14.6061 14.2574 13.9174 13.586 13.2627 12.9474 12.6397 12.3394 12.0462 11.76 11.4804 11.2072 10.9403 10.6795 10.4245 10.1751 9.93123 9.69265 9.45923 9.23078 9.00716 8.78822 8.57382 8.36382 8.15808 7.95647 7.75888 7.56518 7.37524 7.18897 7.00624 6.82696 6.65101 6.4783 6.30873 6.1422 5.97863 5.81791 5.65997 5.50471 5.35206 5.20193 5.05425 4.90893 4.7659 4.62508 4.48641 4.34981 4.21521 4.08255 3.95175 3.82276 3.6955 3.56992 3.44595 3.32354 3.20261 3.08312 2.965 2.8482 2.73266 2.61832 2.50514 2.39305 2.282 2.17194 2.06282 1.95459 1.84718 1.74056 1.63468 1.52947 1.4249 1.32091 1.21745 1.11448 1.01194 0.90979 0.807981 0.706464 0.60519 0.504113 0.403183 0.302355 0.20158 0.100811 0 
90 87.5062 85.0207 82.5516 80.1068 77.6935 75.3185 72.9879 70.7068 68.4798 66.3104 64.2016 62.1554 60.1732 58.2558 56.4034 54.6157 52.8919 51.2311 49.6318 48.0926 46.6116 45.187 43.8167 42.4989 41.2315 40.0123 38.8395 37.7109 36.6247 35.579 34.5719 33.6017 32.6667 31.7653 30.8959 30.0571 29.2474 28.4655 27.7101 26.9801 26.2742 25.5914 24.9307 24.2911 23.6717 23.0715 22.4898 21.9257 21.3786 20.8477 20.3323 19.8319 19.3458 18.8734 18.4142 17.9677 17.5333 17.1107 16.6994 16.299 15.909 15.5291 15.1589 14.7981 14.4464 14.1033 13.7687 13.4422 13.1236 12.8125 12.5088 12.2122 11.9225 11.6394 11.3627 11.0923 10.8279 10.5693 10.3163 10.0689 9.82673 9.58972 9.3577 9.13051 8.90801 8.69006 8.47651 8.26724 8.06211 7.86101 7.66381 7.4704 7.28066 7.09448 6.91175 6.73238 6.55626 6.38329 6.21337 6.04642 5.88235 5.72106 5.56247 5.40649 5.25305 5.10205 4.95344 4.80712 4.66302 4.52107 4.3812 4.24333 4.1074 3.97335 3.84109 3.71057 3.58173 3.4545 3.32881 3.20461 3.08184 2.96044 2.84034 2.7215 2.60385 2.48734 2.37191 2.25751 2.14409 2.03158 1.91994 1.80911 1.69904 1.58968 1.48098 1.37289 1.26535 1.15831 1.05173 0.94556 0.839739 0.734223 0.628963 0.523908 0.41901 0.314219 0.209487 0.104763 0 